Title: inverter example circuit for control language tutorial
Date: Thu Mar 28 22:10:04  2024
Plotname: Transient Analysis
Flags: real
No. Variables: 3
No. Points: 5038
Variables:
	0	time	time
	1	v(in)	voltage
	2	v(out)	voltage
Values:
 0	0.000000000000000e+00
	0.000000000000000e+00
	1.999999944899226e+00

 1	1.000000000000000e-12
	0.000000000000000e+00
	1.999999945481653e+00

 2	2.000000000000000e-12
	0.000000000000000e+00
	1.999999945931678e+00

 3	4.000000000000001e-12
	0.000000000000000e+00
	1.999999946627124e+00

 4	8.000000000000001e-12
	0.000000000000000e+00
	1.999999947245150e+00

 5	1.600000000000000e-11
	0.000000000000000e+00
	1.999999947478858e+00

 6	3.200000000000001e-11
	0.000000000000000e+00
	1.999999947454213e+00

 7	6.400000000000001e-11
	0.000000000000000e+00
	1.999999947465904e+00

 8	1.280000000000000e-10
	0.000000000000000e+00
	1.999999947457580e+00

 9	2.280000000000000e-10
	0.000000000000000e+00
	1.999999947464546e+00

 10	3.280000000000001e-10
	0.000000000000000e+00
	1.999999947458467e+00

 11	4.280000000000001e-10
	0.000000000000000e+00
	1.999999947463772e+00

 12	5.280000000000000e-10
	0.000000000000000e+00
	1.999999947459142e+00

 13	6.280000000000000e-10
	0.000000000000000e+00
	1.999999947463182e+00

 14	7.280000000000000e-10
	0.000000000000000e+00
	1.999999947459657e+00

 15	8.279999999999999e-10
	0.000000000000000e+00
	1.999999947462734e+00

 16	9.279999999999999e-10
	0.000000000000000e+00
	1.999999947460049e+00

 17	1.028000000000000e-09
	0.000000000000000e+00
	1.999999947462392e+00

 18	1.128000000000000e-09
	0.000000000000000e+00
	1.999999947460347e+00

 19	1.228000000000000e-09
	0.000000000000000e+00
	1.999999947462131e+00

 20	1.328000000000000e-09
	0.000000000000000e+00
	1.999999947460573e+00

 21	1.428000000000000e-09
	0.000000000000000e+00
	1.999999947461934e+00

 22	1.528000000000000e-09
	0.000000000000000e+00
	1.999999947460747e+00

 23	1.628000000000000e-09
	0.000000000000000e+00
	1.999999947461782e+00

 24	1.728000000000000e-09
	0.000000000000000e+00
	1.999999947460879e+00

 25	1.828000000000001e-09
	0.000000000000000e+00
	1.999999947461667e+00

 26	1.928000000000000e-09
	0.000000000000000e+00
	1.999999947460980e+00

 27	2.028000000000000e-09
	0.000000000000000e+00
	1.999999947461580e+00

 28	2.128000000000001e-09
	0.000000000000000e+00
	1.999999947461056e+00

 29	2.228000000000001e-09
	0.000000000000000e+00
	1.999999947461513e+00

 30	2.328000000000001e-09
	0.000000000000000e+00
	1.999999947461114e+00

 31	2.428000000000001e-09
	0.000000000000000e+00
	1.999999947461462e+00

 32	2.528000000000001e-09
	0.000000000000000e+00
	1.999999947461158e+00

 33	2.628000000000001e-09
	0.000000000000000e+00
	1.999999947461423e+00

 34	2.728000000000001e-09
	0.000000000000000e+00
	1.999999947461192e+00

 35	2.828000000000001e-09
	0.000000000000000e+00
	1.999999947461394e+00

 36	2.928000000000001e-09
	0.000000000000000e+00
	1.999999947461218e+00

 37	3.028000000000001e-09
	0.000000000000000e+00
	1.999999947461372e+00

 38	3.128000000000001e-09
	0.000000000000000e+00
	1.999999947461238e+00

 39	3.228000000000001e-09
	0.000000000000000e+00
	1.999999947461355e+00

 40	3.328000000000001e-09
	0.000000000000000e+00
	1.999999947461252e+00

 41	3.428000000000001e-09
	0.000000000000000e+00
	1.999999947461341e+00

 42	3.528000000000001e-09
	0.000000000000000e+00
	1.999999947461264e+00

 43	3.628000000000002e-09
	0.000000000000000e+00
	1.999999947461331e+00

 44	3.728000000000001e-09
	0.000000000000000e+00
	1.999999947461272e+00

 45	3.828000000000001e-09
	0.000000000000000e+00
	1.999999947461323e+00

 46	3.928000000000001e-09
	0.000000000000000e+00
	1.999999947461279e+00

 47	4.028000000000001e-09
	0.000000000000000e+00
	1.999999947461318e+00

 48	4.128000000000001e-09
	0.000000000000000e+00
	1.999999947461284e+00

 49	4.228000000000002e-09
	0.000000000000000e+00
	1.999999947461314e+00

 50	4.328000000000002e-09
	0.000000000000000e+00
	1.999999947461288e+00

 51	4.428000000000002e-09
	0.000000000000000e+00
	1.999999947461311e+00

 52	4.528000000000002e-09
	0.000000000000000e+00
	1.999999947461291e+00

 53	4.628000000000002e-09
	0.000000000000000e+00
	1.999999947461308e+00

 54	4.728000000000002e-09
	0.000000000000000e+00
	1.999999947461293e+00

 55	4.828000000000002e-09
	0.000000000000000e+00
	1.999999947461306e+00

 56	4.928000000000002e-09
	0.000000000000000e+00
	1.999999947461295e+00

 57	5.028000000000002e-09
	0.000000000000000e+00
	1.999999947461304e+00

 58	5.128000000000002e-09
	0.000000000000000e+00
	1.999999947461296e+00

 59	5.228000000000002e-09
	0.000000000000000e+00
	1.999999947461303e+00

 60	5.328000000000002e-09
	0.000000000000000e+00
	1.999999947461296e+00

 61	5.428000000000002e-09
	0.000000000000000e+00
	1.999999947461303e+00

 62	5.528000000000002e-09
	0.000000000000000e+00
	1.999999947461297e+00

 63	5.628000000000002e-09
	0.000000000000000e+00
	1.999999947461302e+00

 64	5.728000000000003e-09
	0.000000000000000e+00
	1.999999947461298e+00

 65	5.828000000000003e-09
	0.000000000000000e+00
	1.999999947461301e+00

 66	5.928000000000003e-09
	0.000000000000000e+00
	1.999999947461299e+00

 67	6.028000000000003e-09
	0.000000000000000e+00
	1.999999947461301e+00

 68	6.128000000000003e-09
	0.000000000000000e+00
	1.999999947461299e+00

 69	6.228000000000003e-09
	0.000000000000000e+00
	1.999999947461301e+00

 70	6.328000000000003e-09
	0.000000000000000e+00
	1.999999947461299e+00

 71	6.428000000000003e-09
	0.000000000000000e+00
	1.999999947461300e+00

 72	6.528000000000003e-09
	0.000000000000000e+00
	1.999999947461299e+00

 73	6.628000000000003e-09
	0.000000000000000e+00
	1.999999947461301e+00

 74	6.728000000000003e-09
	0.000000000000000e+00
	1.999999947461299e+00

 75	6.828000000000003e-09
	0.000000000000000e+00
	1.999999947461300e+00

 76	6.928000000000003e-09
	0.000000000000000e+00
	1.999999947461299e+00

 77	7.028000000000003e-09
	0.000000000000000e+00
	1.999999947461300e+00

 78	7.128000000000004e-09
	0.000000000000000e+00
	1.999999947461299e+00

 79	7.228000000000004e-09
	0.000000000000000e+00
	1.999999947461300e+00

 80	7.328000000000004e-09
	0.000000000000000e+00
	1.999999947461299e+00

 81	7.428000000000004e-09
	0.000000000000000e+00
	1.999999947461300e+00

 82	7.528000000000003e-09
	0.000000000000000e+00
	1.999999947461299e+00

 83	7.628000000000002e-09
	0.000000000000000e+00
	1.999999947461300e+00

 84	7.728000000000001e-09
	0.000000000000000e+00
	1.999999947461300e+00

 85	7.828000000000001e-09
	0.000000000000000e+00
	1.999999947461300e+00

 86	7.928000000000000e-09
	0.000000000000000e+00
	1.999999947461300e+00

 87	8.027999999999999e-09
	0.000000000000000e+00
	1.999999947461300e+00

 88	8.127999999999998e-09
	0.000000000000000e+00
	1.999999947461300e+00

 89	8.227999999999998e-09
	0.000000000000000e+00
	1.999999947461300e+00

 90	8.327999999999997e-09
	0.000000000000000e+00
	1.999999947461300e+00

 91	8.427999999999996e-09
	0.000000000000000e+00
	1.999999947461300e+00

 92	8.527999999999995e-09
	0.000000000000000e+00
	1.999999947461300e+00

 93	8.627999999999995e-09
	0.000000000000000e+00
	1.999999947461300e+00

 94	8.727999999999994e-09
	0.000000000000000e+00
	1.999999947461300e+00

 95	8.827999999999993e-09
	0.000000000000000e+00
	1.999999947461300e+00

 96	8.927999999999992e-09
	0.000000000000000e+00
	1.999999947461300e+00

 97	9.027999999999992e-09
	0.000000000000000e+00
	1.999999947461300e+00

 98	9.127999999999991e-09
	0.000000000000000e+00
	1.999999947461300e+00

 99	9.227999999999990e-09
	0.000000000000000e+00
	1.999999947461300e+00

 100	9.327999999999989e-09
	0.000000000000000e+00
	1.999999947461300e+00

 101	9.427999999999989e-09
	0.000000000000000e+00
	1.999999947461300e+00

 102	9.527999999999988e-09
	0.000000000000000e+00
	1.999999947461300e+00

 103	9.627999999999987e-09
	0.000000000000000e+00
	1.999999947461300e+00

 104	9.727999999999986e-09
	0.000000000000000e+00
	1.999999947461300e+00

 105	9.827999999999986e-09
	0.000000000000000e+00
	1.999999947461300e+00

 106	9.927999999999985e-09
	0.000000000000000e+00
	1.999999947461300e+00

 107	1.002799999999998e-08
	0.000000000000000e+00
	1.999999947461300e+00

 108	1.012799999999998e-08
	0.000000000000000e+00
	1.999999947461300e+00

 109	1.022799999999998e-08
	0.000000000000000e+00
	1.999999947461300e+00

 110	1.032799999999998e-08
	0.000000000000000e+00
	1.999999947461300e+00

 111	1.042799999999998e-08
	0.000000000000000e+00
	1.999999947461300e+00

 112	1.052799999999998e-08
	0.000000000000000e+00
	1.999999947461300e+00

 113	1.062799999999998e-08
	0.000000000000000e+00
	1.999999947461300e+00

 114	1.072799999999998e-08
	0.000000000000000e+00
	1.999999947461300e+00

 115	1.082799999999998e-08
	0.000000000000000e+00
	1.999999947461300e+00

 116	1.092799999999998e-08
	0.000000000000000e+00
	1.999999947461300e+00

 117	1.102799999999998e-08
	0.000000000000000e+00
	1.999999947461300e+00

 118	1.112799999999998e-08
	0.000000000000000e+00
	1.999999947461300e+00

 119	1.122799999999997e-08
	0.000000000000000e+00
	1.999999947461300e+00

 120	1.132799999999997e-08
	0.000000000000000e+00
	1.999999947461300e+00

 121	1.142799999999997e-08
	0.000000000000000e+00
	1.999999947461300e+00

 122	1.152799999999997e-08
	0.000000000000000e+00
	1.999999947461300e+00

 123	1.162799999999997e-08
	0.000000000000000e+00
	1.999999947461300e+00

 124	1.172799999999997e-08
	0.000000000000000e+00
	1.999999947461300e+00

 125	1.182799999999997e-08
	0.000000000000000e+00
	1.999999947461300e+00

 126	1.192799999999997e-08
	0.000000000000000e+00
	1.999999947461300e+00

 127	1.202799999999997e-08
	0.000000000000000e+00
	1.999999947461300e+00

 128	1.212799999999997e-08
	0.000000000000000e+00
	1.999999947461300e+00

 129	1.222799999999997e-08
	0.000000000000000e+00
	1.999999947461300e+00

 130	1.232799999999997e-08
	0.000000000000000e+00
	1.999999947461300e+00

 131	1.242799999999997e-08
	0.000000000000000e+00
	1.999999947461300e+00

 132	1.252799999999997e-08
	0.000000000000000e+00
	1.999999947461300e+00

 133	1.262799999999996e-08
	0.000000000000000e+00
	1.999999947461300e+00

 134	1.272799999999996e-08
	0.000000000000000e+00
	1.999999947461300e+00

 135	1.282799999999996e-08
	0.000000000000000e+00
	1.999999947461300e+00

 136	1.292799999999996e-08
	0.000000000000000e+00
	1.999999947461300e+00

 137	1.302799999999996e-08
	0.000000000000000e+00
	1.999999947461300e+00

 138	1.312799999999996e-08
	0.000000000000000e+00
	1.999999947461300e+00

 139	1.322799999999996e-08
	0.000000000000000e+00
	1.999999947461300e+00

 140	1.332799999999996e-08
	0.000000000000000e+00
	1.999999947461300e+00

 141	1.342799999999996e-08
	0.000000000000000e+00
	1.999999947461300e+00

 142	1.352799999999996e-08
	0.000000000000000e+00
	1.999999947461300e+00

 143	1.362799999999996e-08
	0.000000000000000e+00
	1.999999947461300e+00

 144	1.372799999999996e-08
	0.000000000000000e+00
	1.999999947461300e+00

 145	1.382799999999996e-08
	0.000000000000000e+00
	1.999999947461300e+00

 146	1.392799999999995e-08
	0.000000000000000e+00
	1.999999947461300e+00

 147	1.402799999999995e-08
	0.000000000000000e+00
	1.999999947461300e+00

 148	1.412799999999995e-08
	0.000000000000000e+00
	1.999999947461300e+00

 149	1.422799999999995e-08
	0.000000000000000e+00
	1.999999947461300e+00

 150	1.432799999999995e-08
	0.000000000000000e+00
	1.999999947461300e+00

 151	1.442799999999995e-08
	0.000000000000000e+00
	1.999999947461300e+00

 152	1.452799999999995e-08
	0.000000000000000e+00
	1.999999947461300e+00

 153	1.462799999999995e-08
	0.000000000000000e+00
	1.999999947461300e+00

 154	1.472799999999995e-08
	0.000000000000000e+00
	1.999999947461300e+00

 155	1.482799999999995e-08
	0.000000000000000e+00
	1.999999947461300e+00

 156	1.492799999999995e-08
	0.000000000000000e+00
	1.999999947461300e+00

 157	1.502799999999995e-08
	0.000000000000000e+00
	1.999999947461300e+00

 158	1.512799999999995e-08
	0.000000000000000e+00
	1.999999947461300e+00

 159	1.522799999999995e-08
	0.000000000000000e+00
	1.999999947461300e+00

 160	1.532799999999995e-08
	0.000000000000000e+00
	1.999999947461300e+00

 161	1.542799999999995e-08
	0.000000000000000e+00
	1.999999947461300e+00

 162	1.552799999999995e-08
	0.000000000000000e+00
	1.999999947461300e+00

 163	1.562799999999995e-08
	0.000000000000000e+00
	1.999999947461300e+00

 164	1.572799999999995e-08
	0.000000000000000e+00
	1.999999947461300e+00

 165	1.582799999999995e-08
	0.000000000000000e+00
	1.999999947461300e+00

 166	1.592799999999996e-08
	0.000000000000000e+00
	1.999999947461300e+00

 167	1.602799999999996e-08
	0.000000000000000e+00
	1.999999947461300e+00

 168	1.612799999999996e-08
	0.000000000000000e+00
	1.999999947461300e+00

 169	1.622799999999996e-08
	0.000000000000000e+00
	1.999999947461300e+00

 170	1.632799999999996e-08
	0.000000000000000e+00
	1.999999947461300e+00

 171	1.642799999999996e-08
	0.000000000000000e+00
	1.999999947461300e+00

 172	1.652799999999996e-08
	0.000000000000000e+00
	1.999999947461300e+00

 173	1.662799999999996e-08
	0.000000000000000e+00
	1.999999947461300e+00

 174	1.672799999999996e-08
	0.000000000000000e+00
	1.999999947461300e+00

 175	1.682799999999996e-08
	0.000000000000000e+00
	1.999999947461300e+00

 176	1.692799999999996e-08
	0.000000000000000e+00
	1.999999947461300e+00

 177	1.702799999999997e-08
	0.000000000000000e+00
	1.999999947461300e+00

 178	1.712799999999997e-08
	0.000000000000000e+00
	1.999999947461300e+00

 179	1.722799999999997e-08
	0.000000000000000e+00
	1.999999947461300e+00

 180	1.732799999999997e-08
	0.000000000000000e+00
	1.999999947461300e+00

 181	1.742799999999997e-08
	0.000000000000000e+00
	1.999999947461300e+00

 182	1.752799999999997e-08
	0.000000000000000e+00
	1.999999947461300e+00

 183	1.762799999999997e-08
	0.000000000000000e+00
	1.999999947461300e+00

 184	1.772799999999997e-08
	0.000000000000000e+00
	1.999999947461300e+00

 185	1.782799999999997e-08
	0.000000000000000e+00
	1.999999947461300e+00

 186	1.792799999999997e-08
	0.000000000000000e+00
	1.999999947461300e+00

 187	1.802799999999997e-08
	0.000000000000000e+00
	1.999999947461300e+00

 188	1.812799999999998e-08
	0.000000000000000e+00
	1.999999947461300e+00

 189	1.822799999999998e-08
	0.000000000000000e+00
	1.999999947461300e+00

 190	1.832799999999998e-08
	0.000000000000000e+00
	1.999999947461300e+00

 191	1.842799999999998e-08
	0.000000000000000e+00
	1.999999947461300e+00

 192	1.852799999999998e-08
	0.000000000000000e+00
	1.999999947461300e+00

 193	1.862799999999998e-08
	0.000000000000000e+00
	1.999999947461300e+00

 194	1.872799999999998e-08
	0.000000000000000e+00
	1.999999947461300e+00

 195	1.882799999999998e-08
	0.000000000000000e+00
	1.999999947461300e+00

 196	1.892799999999998e-08
	0.000000000000000e+00
	1.999999947461300e+00

 197	1.902799999999998e-08
	0.000000000000000e+00
	1.999999947461300e+00

 198	1.912799999999998e-08
	0.000000000000000e+00
	1.999999947461300e+00

 199	1.922799999999999e-08
	0.000000000000000e+00
	1.999999947461300e+00

 200	1.932799999999999e-08
	0.000000000000000e+00
	1.999999947461300e+00

 201	1.942799999999999e-08
	0.000000000000000e+00
	1.999999947461300e+00

 202	1.952799999999999e-08
	0.000000000000000e+00
	1.999999947461300e+00

 203	1.962799999999999e-08
	0.000000000000000e+00
	1.999999947461300e+00

 204	1.972799999999999e-08
	0.000000000000000e+00
	1.999999947461300e+00

 205	1.982799999999999e-08
	0.000000000000000e+00
	1.999999947461300e+00

 206	1.992799999999999e-08
	0.000000000000000e+00
	1.999999947461300e+00

 207	2.002799999999999e-08
	0.000000000000000e+00
	1.999999947461300e+00

 208	2.012799999999999e-08
	0.000000000000000e+00
	1.999999947461300e+00

 209	2.022799999999999e-08
	0.000000000000000e+00
	1.999999947461300e+00

 210	2.032800000000000e-08
	0.000000000000000e+00
	1.999999947461300e+00

 211	2.042800000000000e-08
	0.000000000000000e+00
	1.999999947461300e+00

 212	2.052800000000000e-08
	0.000000000000000e+00
	1.999999947461300e+00

 213	2.062800000000000e-08
	0.000000000000000e+00
	1.999999947461300e+00

 214	2.072800000000000e-08
	0.000000000000000e+00
	1.999999947461300e+00

 215	2.082800000000000e-08
	0.000000000000000e+00
	1.999999947461300e+00

 216	2.092800000000000e-08
	0.000000000000000e+00
	1.999999947461300e+00

 217	2.102800000000000e-08
	0.000000000000000e+00
	1.999999947461300e+00

 218	2.112800000000000e-08
	0.000000000000000e+00
	1.999999947461300e+00

 219	2.122800000000000e-08
	0.000000000000000e+00
	1.999999947461300e+00

 220	2.132800000000000e-08
	0.000000000000000e+00
	1.999999947461300e+00

 221	2.142800000000000e-08
	0.000000000000000e+00
	1.999999947461300e+00

 222	2.152800000000001e-08
	0.000000000000000e+00
	1.999999947461300e+00

 223	2.162800000000001e-08
	0.000000000000000e+00
	1.999999947461300e+00

 224	2.172800000000001e-08
	0.000000000000000e+00
	1.999999947461300e+00

 225	2.182800000000001e-08
	0.000000000000000e+00
	1.999999947461300e+00

 226	2.192800000000001e-08
	0.000000000000000e+00
	1.999999947461300e+00

 227	2.202800000000001e-08
	0.000000000000000e+00
	1.999999947461300e+00

 228	2.212800000000001e-08
	0.000000000000000e+00
	1.999999947461300e+00

 229	2.222800000000001e-08
	0.000000000000000e+00
	1.999999947461300e+00

 230	2.232800000000001e-08
	0.000000000000000e+00
	1.999999947461300e+00

 231	2.242800000000001e-08
	0.000000000000000e+00
	1.999999947461300e+00

 232	2.252800000000001e-08
	0.000000000000000e+00
	1.999999947461300e+00

 233	2.262800000000002e-08
	0.000000000000000e+00
	1.999999947461300e+00

 234	2.272800000000002e-08
	0.000000000000000e+00
	1.999999947461300e+00

 235	2.282800000000002e-08
	0.000000000000000e+00
	1.999999947461300e+00

 236	2.292800000000002e-08
	0.000000000000000e+00
	1.999999947461300e+00

 237	2.302800000000002e-08
	0.000000000000000e+00
	1.999999947461300e+00

 238	2.312800000000002e-08
	0.000000000000000e+00
	1.999999947461300e+00

 239	2.322800000000002e-08
	0.000000000000000e+00
	1.999999947461300e+00

 240	2.332800000000002e-08
	0.000000000000000e+00
	1.999999947461300e+00

 241	2.342800000000002e-08
	0.000000000000000e+00
	1.999999947461300e+00

 242	2.352800000000002e-08
	0.000000000000000e+00
	1.999999947461300e+00

 243	2.362800000000002e-08
	0.000000000000000e+00
	1.999999947461300e+00

 244	2.372800000000003e-08
	0.000000000000000e+00
	1.999999947461300e+00

 245	2.382800000000003e-08
	0.000000000000000e+00
	1.999999947461300e+00

 246	2.392800000000003e-08
	0.000000000000000e+00
	1.999999947461300e+00

 247	2.402800000000003e-08
	0.000000000000000e+00
	1.999999947461300e+00

 248	2.412800000000003e-08
	0.000000000000000e+00
	1.999999947461300e+00

 249	2.422800000000003e-08
	0.000000000000000e+00
	1.999999947461300e+00

 250	2.432800000000003e-08
	0.000000000000000e+00
	1.999999947461300e+00

 251	2.442800000000003e-08
	0.000000000000000e+00
	1.999999947461300e+00

 252	2.452800000000003e-08
	0.000000000000000e+00
	1.999999947461300e+00

 253	2.462800000000003e-08
	0.000000000000000e+00
	1.999999947461300e+00

 254	2.472800000000003e-08
	0.000000000000000e+00
	1.999999947461300e+00

 255	2.482800000000004e-08
	0.000000000000000e+00
	1.999999947461300e+00

 256	2.492800000000004e-08
	0.000000000000000e+00
	1.999999947461300e+00

 257	2.502800000000004e-08
	0.000000000000000e+00
	1.999999947461300e+00

 258	2.512800000000004e-08
	0.000000000000000e+00
	1.999999947461300e+00

 259	2.522800000000004e-08
	0.000000000000000e+00
	1.999999947461300e+00

 260	2.532800000000004e-08
	0.000000000000000e+00
	1.999999947461300e+00

 261	2.542800000000004e-08
	0.000000000000000e+00
	1.999999947461300e+00

 262	2.552800000000004e-08
	0.000000000000000e+00
	1.999999947461300e+00

 263	2.562800000000004e-08
	0.000000000000000e+00
	1.999999947461300e+00

 264	2.572800000000004e-08
	0.000000000000000e+00
	1.999999947461300e+00

 265	2.582800000000004e-08
	0.000000000000000e+00
	1.999999947461300e+00

 266	2.592800000000005e-08
	0.000000000000000e+00
	1.999999947461300e+00

 267	2.602800000000005e-08
	0.000000000000000e+00
	1.999999947461300e+00

 268	2.612800000000005e-08
	0.000000000000000e+00
	1.999999947461300e+00

 269	2.622800000000005e-08
	0.000000000000000e+00
	1.999999947461300e+00

 270	2.632800000000005e-08
	0.000000000000000e+00
	1.999999947461300e+00

 271	2.642800000000005e-08
	0.000000000000000e+00
	1.999999947461300e+00

 272	2.652800000000005e-08
	0.000000000000000e+00
	1.999999947461300e+00

 273	2.662800000000005e-08
	0.000000000000000e+00
	1.999999947461300e+00

 274	2.672800000000005e-08
	0.000000000000000e+00
	1.999999947461300e+00

 275	2.682800000000005e-08
	0.000000000000000e+00
	1.999999947461300e+00

 276	2.692800000000005e-08
	0.000000000000000e+00
	1.999999947461300e+00

 277	2.702800000000006e-08
	0.000000000000000e+00
	1.999999947461300e+00

 278	2.712800000000006e-08
	0.000000000000000e+00
	1.999999947461300e+00

 279	2.722800000000006e-08
	0.000000000000000e+00
	1.999999947461300e+00

 280	2.732800000000006e-08
	0.000000000000000e+00
	1.999999947461300e+00

 281	2.742800000000006e-08
	0.000000000000000e+00
	1.999999947461300e+00

 282	2.752800000000006e-08
	0.000000000000000e+00
	1.999999947461300e+00

 283	2.762800000000006e-08
	0.000000000000000e+00
	1.999999947461300e+00

 284	2.772800000000006e-08
	0.000000000000000e+00
	1.999999947461300e+00

 285	2.782800000000006e-08
	0.000000000000000e+00
	1.999999947461300e+00

 286	2.792800000000006e-08
	0.000000000000000e+00
	1.999999947461300e+00

 287	2.802800000000006e-08
	0.000000000000000e+00
	1.999999947461300e+00

 288	2.812800000000006e-08
	0.000000000000000e+00
	1.999999947461300e+00

 289	2.822800000000007e-08
	0.000000000000000e+00
	1.999999947461300e+00

 290	2.832800000000007e-08
	0.000000000000000e+00
	1.999999947461300e+00

 291	2.842800000000007e-08
	0.000000000000000e+00
	1.999999947461300e+00

 292	2.852800000000007e-08
	0.000000000000000e+00
	1.999999947461300e+00

 293	2.862800000000007e-08
	0.000000000000000e+00
	1.999999947461300e+00

 294	2.872800000000007e-08
	0.000000000000000e+00
	1.999999947461300e+00

 295	2.882800000000007e-08
	0.000000000000000e+00
	1.999999947461300e+00

 296	2.892800000000007e-08
	0.000000000000000e+00
	1.999999947461300e+00

 297	2.902800000000007e-08
	0.000000000000000e+00
	1.999999947461300e+00

 298	2.912800000000007e-08
	0.000000000000000e+00
	1.999999947461300e+00

 299	2.922800000000007e-08
	0.000000000000000e+00
	1.999999947461300e+00

 300	2.932800000000008e-08
	0.000000000000000e+00
	1.999999947461300e+00

 301	2.942800000000008e-08
	0.000000000000000e+00
	1.999999947461300e+00

 302	2.952800000000008e-08
	0.000000000000000e+00
	1.999999947461300e+00

 303	2.962800000000008e-08
	0.000000000000000e+00
	1.999999947461300e+00

 304	2.972800000000008e-08
	0.000000000000000e+00
	1.999999947461300e+00

 305	2.982800000000008e-08
	0.000000000000000e+00
	1.999999947461300e+00

 306	2.992800000000008e-08
	0.000000000000000e+00
	1.999999947461300e+00

 307	3.002800000000008e-08
	0.000000000000000e+00
	1.999999947461300e+00

 308	3.012800000000008e-08
	0.000000000000000e+00
	1.999999947461300e+00

 309	3.022800000000008e-08
	0.000000000000000e+00
	1.999999947461300e+00

 310	3.032800000000008e-08
	0.000000000000000e+00
	1.999999947461300e+00

 311	3.042800000000009e-08
	0.000000000000000e+00
	1.999999947461300e+00

 312	3.052800000000009e-08
	0.000000000000000e+00
	1.999999947461300e+00

 313	3.062800000000009e-08
	0.000000000000000e+00
	1.999999947461300e+00

 314	3.072800000000009e-08
	0.000000000000000e+00
	1.999999947461300e+00

 315	3.082800000000009e-08
	0.000000000000000e+00
	1.999999947461300e+00

 316	3.092800000000009e-08
	0.000000000000000e+00
	1.999999947461300e+00

 317	3.102800000000009e-08
	0.000000000000000e+00
	1.999999947461300e+00

 318	3.112800000000009e-08
	0.000000000000000e+00
	1.999999947461300e+00

 319	3.122800000000009e-08
	0.000000000000000e+00
	1.999999947461300e+00

 320	3.132800000000009e-08
	0.000000000000000e+00
	1.999999947461300e+00

 321	3.142800000000009e-08
	0.000000000000000e+00
	1.999999947461300e+00

 322	3.152800000000010e-08
	0.000000000000000e+00
	1.999999947461300e+00

 323	3.162800000000010e-08
	0.000000000000000e+00
	1.999999947461300e+00

 324	3.172800000000010e-08
	0.000000000000000e+00
	1.999999947461300e+00

 325	3.182800000000010e-08
	0.000000000000000e+00
	1.999999947461300e+00

 326	3.192800000000010e-08
	0.000000000000000e+00
	1.999999947461300e+00

 327	3.202800000000010e-08
	0.000000000000000e+00
	1.999999947461300e+00

 328	3.212800000000010e-08
	0.000000000000000e+00
	1.999999947461300e+00

 329	3.222800000000010e-08
	0.000000000000000e+00
	1.999999947461300e+00

 330	3.232800000000010e-08
	0.000000000000000e+00
	1.999999947461300e+00

 331	3.242800000000010e-08
	0.000000000000000e+00
	1.999999947461300e+00

 332	3.252800000000010e-08
	0.000000000000000e+00
	1.999999947461300e+00

 333	3.262800000000011e-08
	0.000000000000000e+00
	1.999999947461300e+00

 334	3.272800000000011e-08
	0.000000000000000e+00
	1.999999947461300e+00

 335	3.282800000000011e-08
	0.000000000000000e+00
	1.999999947461300e+00

 336	3.292800000000011e-08
	0.000000000000000e+00
	1.999999947461300e+00

 337	3.302800000000011e-08
	0.000000000000000e+00
	1.999999947461300e+00

 338	3.312800000000011e-08
	0.000000000000000e+00
	1.999999947461300e+00

 339	3.322800000000011e-08
	0.000000000000000e+00
	1.999999947461300e+00

 340	3.332800000000011e-08
	0.000000000000000e+00
	1.999999947461300e+00

 341	3.342800000000011e-08
	0.000000000000000e+00
	1.999999947461300e+00

 342	3.352800000000011e-08
	0.000000000000000e+00
	1.999999947461300e+00

 343	3.362800000000011e-08
	0.000000000000000e+00
	1.999999947461300e+00

 344	3.372800000000012e-08
	0.000000000000000e+00
	1.999999947461300e+00

 345	3.382800000000012e-08
	0.000000000000000e+00
	1.999999947461300e+00

 346	3.392800000000012e-08
	0.000000000000000e+00
	1.999999947461300e+00

 347	3.402800000000012e-08
	0.000000000000000e+00
	1.999999947461300e+00

 348	3.412800000000012e-08
	0.000000000000000e+00
	1.999999947461300e+00

 349	3.422800000000012e-08
	0.000000000000000e+00
	1.999999947461300e+00

 350	3.432800000000012e-08
	0.000000000000000e+00
	1.999999947461300e+00

 351	3.442800000000012e-08
	0.000000000000000e+00
	1.999999947461300e+00

 352	3.452800000000012e-08
	0.000000000000000e+00
	1.999999947461300e+00

 353	3.462800000000012e-08
	0.000000000000000e+00
	1.999999947461300e+00

 354	3.472800000000012e-08
	0.000000000000000e+00
	1.999999947461300e+00

 355	3.482800000000012e-08
	0.000000000000000e+00
	1.999999947461300e+00

 356	3.492800000000013e-08
	0.000000000000000e+00
	1.999999947461300e+00

 357	3.502800000000013e-08
	0.000000000000000e+00
	1.999999947461300e+00

 358	3.512800000000013e-08
	0.000000000000000e+00
	1.999999947461300e+00

 359	3.522800000000013e-08
	0.000000000000000e+00
	1.999999947461300e+00

 360	3.532800000000013e-08
	0.000000000000000e+00
	1.999999947461300e+00

 361	3.542800000000013e-08
	0.000000000000000e+00
	1.999999947461300e+00

 362	3.552800000000013e-08
	0.000000000000000e+00
	1.999999947461300e+00

 363	3.562800000000013e-08
	0.000000000000000e+00
	1.999999947461300e+00

 364	3.572800000000013e-08
	0.000000000000000e+00
	1.999999947461300e+00

 365	3.582800000000013e-08
	0.000000000000000e+00
	1.999999947461300e+00

 366	3.592800000000013e-08
	0.000000000000000e+00
	1.999999947461300e+00

 367	3.602800000000014e-08
	0.000000000000000e+00
	1.999999947461300e+00

 368	3.612800000000014e-08
	0.000000000000000e+00
	1.999999947461300e+00

 369	3.622800000000014e-08
	0.000000000000000e+00
	1.999999947461300e+00

 370	3.632800000000014e-08
	0.000000000000000e+00
	1.999999947461300e+00

 371	3.642800000000014e-08
	0.000000000000000e+00
	1.999999947461300e+00

 372	3.652800000000014e-08
	0.000000000000000e+00
	1.999999947461300e+00

 373	3.662800000000014e-08
	0.000000000000000e+00
	1.999999947461300e+00

 374	3.672800000000014e-08
	0.000000000000000e+00
	1.999999947461300e+00

 375	3.682800000000014e-08
	0.000000000000000e+00
	1.999999947461300e+00

 376	3.692800000000014e-08
	0.000000000000000e+00
	1.999999947461300e+00

 377	3.702800000000014e-08
	0.000000000000000e+00
	1.999999947461300e+00

 378	3.712800000000015e-08
	0.000000000000000e+00
	1.999999947461300e+00

 379	3.722800000000015e-08
	0.000000000000000e+00
	1.999999947461300e+00

 380	3.732800000000015e-08
	0.000000000000000e+00
	1.999999947461300e+00

 381	3.742800000000015e-08
	0.000000000000000e+00
	1.999999947461300e+00

 382	3.752800000000015e-08
	0.000000000000000e+00
	1.999999947461300e+00

 383	3.762800000000015e-08
	0.000000000000000e+00
	1.999999947461300e+00

 384	3.772800000000015e-08
	0.000000000000000e+00
	1.999999947461300e+00

 385	3.782800000000015e-08
	0.000000000000000e+00
	1.999999947461300e+00

 386	3.792800000000015e-08
	0.000000000000000e+00
	1.999999947461300e+00

 387	3.802800000000015e-08
	0.000000000000000e+00
	1.999999947461300e+00

 388	3.812800000000015e-08
	0.000000000000000e+00
	1.999999947461300e+00

 389	3.822800000000016e-08
	0.000000000000000e+00
	1.999999947461300e+00

 390	3.832800000000016e-08
	0.000000000000000e+00
	1.999999947461300e+00

 391	3.842800000000016e-08
	0.000000000000000e+00
	1.999999947461300e+00

 392	3.852800000000016e-08
	0.000000000000000e+00
	1.999999947461300e+00

 393	3.862800000000016e-08
	0.000000000000000e+00
	1.999999947461300e+00

 394	3.872800000000016e-08
	0.000000000000000e+00
	1.999999947461300e+00

 395	3.882800000000016e-08
	0.000000000000000e+00
	1.999999947461300e+00

 396	3.892800000000016e-08
	0.000000000000000e+00
	1.999999947461300e+00

 397	3.902800000000016e-08
	0.000000000000000e+00
	1.999999947461300e+00

 398	3.912800000000016e-08
	0.000000000000000e+00
	1.999999947461300e+00

 399	3.922800000000016e-08
	0.000000000000000e+00
	1.999999947461300e+00

 400	3.932800000000017e-08
	0.000000000000000e+00
	1.999999947461300e+00

 401	3.942800000000017e-08
	0.000000000000000e+00
	1.999999947461300e+00

 402	3.952800000000017e-08
	0.000000000000000e+00
	1.999999947461300e+00

 403	3.962800000000017e-08
	0.000000000000000e+00